 Gaussian 09, Revision E.01,
 Gaussian 09:  ES64L-G09RevE.01 30-Nov-2015

 ----------------------------
 # RHF/STO-3G SCF=(CONVER=10)
 ----------------------------

 ------------------
 Water Single Point
 ------------------
 Symbolic Z-matrix:
 Charge =  0 Multiplicity = 1

                         Standard orientation:
 ---------------------------------------------------------------------
 Center     Atomic      Atomic             Coordinates (Angstroms)
 Number     Number       Type             X           Y           Z
 ---------------------------------------------------------------------
      1          8           0       -0.000000    0.119344    0.000000
      2          1           0        0.763465   -0.477385   -0.000000
      3          1           0       -0.763465   -0.477370   -0.000000
 ---------------------------------------------------------------------

 SCF Done:  E(RHF) =  -74.9644489567     A.U. after    8 cycles

 The electronic state is 1-A'.
 Alpha  occ. eigenvalues --  -20.24392  -1.26308  -0.61087  -0.45287  -0.39091
 Alpha virt. eigenvalues --    0.59496   0.72692

 Mulliken charges:
               1
     1  O   -0.354527
     2  H    0.177262
     3  H    0.177265
 Sum of Mulliken charges =  -0.00000

 Dipole moment (field-independent basis, Debye):
    X=             -0.0000    Y=             -1.7137    Z=             -0.0000  Tot=              1.7137
 Quadrupole moment (field-independent basis, Debye-Ang):
   XX=             -4.3695   YY=             -5.3876   ZZ=             -6.1051
   XY=             -0.0000   XZ=              0.0000   YZ=             -0.0000

 Normal termination of Gaussian 09 at Fri Nov 16 14:39:15 2018.
