                               Psi4 1.2.1 release

  ==> Input File <==

--------------------------------------------------------------------------
molecule{
0 1
O 0.0 0.0 -0.143225816552
H 0.0 1.638036840407 1.136548822547
H 0.0 -1.638036840407 1.136548822547
units angstrom
}

set basis 6-31G*
set d_convergence 12
set maxiter 100
set scf_type pk

set reference rhf

energy('scf')
--------------------------------------------------------------------------

    Molecular point group: c2v

    Geometry (in Angstrom), charge = 0, multiplicity = 1:

       Center              X                  Y                   Z               Mass
    ------------   -----------------  -----------------  -----------------  -----------------
         O            0.000000000000     0.000000000000    -0.143225816552    15.994914619560
         H           -0.000000000000     1.638036840407     1.136548822547     1.007825032070
         H            0.000000000000    -1.638036840407     1.136548822547     1.007825032070

  Charge       = 0
  Multiplicity = 1
  Basis Set: 6-31G*
    Blend: 6-31G*

    Orbital Energies [Eh]
    ---------------------

    Doubly Occupied:

       1A1   -20.679815     2A1    -1.195218     1B1    -0.511276
       3A1    -0.410244     1B2    -0.404642

  @RHF Final Energy:   -75.53303844794321

   => Energetics <=

    Nuclear Repulsion Energy =              4.2346702638815827
    One-Electron Energy =                -113.1330255857077702
    Two-Electron Energy =                  33.3653168738829748
    Total Energy =                        -75.5330384479432126

  Dipole Moment: [D]
     X:     0.0000      Y:     0.0000      Z:     2.1830     Total:     2.1830

*** Psi4 exiting successfully. Buy a developer a beer!
