                               Psi4 1.2.1 release

  ==> Input File <==

--------------------------------------------------------------------------
molecule{
0 1
O          1.02678       -0.07839        0.03182
H          0.74793       -0.99954       -0.08083
H          1.99466       -0.12448        0.02618
units angstrom
}

set basis sto-3g
energy('scf')
--------------------------------------------------------------------------

    Molecular point group: cs

    Geometry (in Angstrom), charge = 0, multiplicity = 1:

       Center              X                  Y                   Z               Mass
    ------------   -----------------  -----------------  -----------------  -----------------
         O            0.054527521398     0.038556352566     0.000000000000    15.994914619560
         H           -0.873485056642     0.317406352567     0.000000000000     1.007825032070
         H            0.008093722414    -0.929323647440     0.000000000000     1.007825032070

  Charge       = 0
  Multiplicity = 1
  Basis Set: STO-3G
    Blend: STO-3G
  Basis Set: (STO-3G AUX)
    Blend: DEF2-SVP-JKFIT

    Orbital Energies [Eh]
    ---------------------

    Doubly Occupied:

       1Ap   -20.244137     2Ap    -1.263100     3Ap    -0.610865
       4Ap    -0.452873     1App   -0.390908

  @DF-RHF Final Energy:   -74.96453638122082

   => Energetics <=

    Nuclear Repulsion Energy =              9.0842890896390802
    One-Electron Energy =                -122.1738953480929410
    Two-Electron Energy =                  38.1250698772330310
    Total Energy =                        -74.9645363812208245

  Dipole Moment: [D]
     X:    -1.3990      Y:    -0.9892      Z:     0.0000     Total:     1.7134

*** Psi4 exiting successfully. Buy a developer a beer!
