                               Psi4 1.2.1 release

  ==> Input File <==

--------------------------------------------------------------------------
molecule{
1 2
O 0.0 0.0 -0.143225816552
H 0.0 1.638036840407 1.136548822547
H 0.0 -1.638036840407 1.136548822547
units angstrom
}

set basis STO-3G
set d_convergence 12
set maxiter 100
set scf_type pk

set reference rohf

energy('ccsd')
--------------------------------------------------------------------------

    Molecular point group: c2v

    Geometry (in Angstrom), charge = 1, multiplicity = 2:

       Center              X                  Y                   Z               Mass
    ------------   -----------------  -----------------  -----------------  -----------------
         O            0.000000000000     0.000000000000    -0.143225816552    15.994914619560
         H           -0.000000000000     1.638036840407     1.136548822547     1.007825032070
         H            0.000000000000    -1.638036840407     1.136548822547     1.007825032070

  Charge       = 1
  Multiplicity = 2
  Basis Set: STO-3G
    Blend: STO-3G

    Orbital Energies [Eh]
    ---------------------

    Doubly Occupied:

       1A1   -20.636517     2A1    -1.420904     1B1    -0.706101
       1B2    -0.578255

    Singly Occupied:

       3A1    -0.401883

  @ROHF Final Energy:   -74.16381269784327

   => Energetics <=

    Nuclear Repulsion Energy =              4.2346702638815827
    One-Electron Energy =                -109.2957213277277333
    Two-Electron Energy =                  30.8972383660028846
    Total Energy =                        -74.1638126978432695

  Dipole Moment: [D]
     X:     0.0000      Y:     0.0000      Z:     5.0345     Total:     5.0345

      * CCSD total energy                     =  -74.316988418460610
*** Psi4 exiting successfully. Buy a developer a beer!
