                         Program Version 4.0.1.2 - RELEASE -
|  1> # Running OrCa
|  2>
|  3> % pal nprocs 8 end
|  4> % MaxCore 8000
|  5>
|  6> ! RHF cc-pvdz
|  7> ! Opt
|  8> ! AnFreq
|  9>
| 10> * xyz 0 1
| 11> O       -3.1403358162      4.5496815570     -0.0014963683
| 12> H       -2.1510094674      4.5069001746      0.0010564571
| 13> H       -3.4297011993      3.6043303389      0.0549140710
| 14> *
| 15>
| 16>
| 17>                          ****END OF INPUT****
 Total Charge           Charge          ....    0
 Multiplicity           Mult            ....    1
 Number of Electrons    NEL             ....   10
FINAL SINGLE POINT ENERGY       -76.023196172652
FINAL SINGLE POINT ENERGY       -76.026956011754
FINAL SINGLE POINT ENERGY       -76.027048211942
FINAL SINGLE POINT ENERGY       -76.027052797522
FINAL SINGLE POINT ENERGY       -76.027053507494
                    ***********************HURRAY********************

CARTESIAN COORDINATES (ANGSTROEM)
---------------------------------
  O     -3.129717    4.534692   -0.000602
  H     -2.184286    4.494655    0.001787
  H     -3.407043    3.631566    0.053289

 Multiplicity           Mult            ....    1
 Number of Electrons    NEL             ....   10
 Basis Dimension        Dim             ....   24

ORBITAL ENERGIES
----------------

  NO   OCC          E(Eh)            E(eV)
   0   2.0000     -20.548428      -559.1512
   1   2.0000      -1.342272       -36.5251
   2   2.0000      -0.705424       -19.1956
   3   2.0000      -0.568404       -15.4671
   4   2.0000      -0.493924       -13.4404
   5   0.0000       0.187413         5.0998
   6   0.0000       0.257811         7.0154
   7   0.0000       0.797668        21.7057
   8   0.0000       0.864390        23.5212
   9   0.0000       1.162637        31.6370

MULLIKEN ATOMIC CHARGES
-----------------------
   0 O :   -0.292222
   1 H :    0.146111
   2 H :    0.146111
Sum of atomic charges:   -0.0000000

LOEWDIN ATOMIC CHARGES
----------------------
   0 O :   -0.081091
   1 H :    0.040546
   2 H :    0.040546

  Mayer bond orders larger than 0.1
B(  0-O ,  1-H ) :   1.0255 B(  0-O ,  2-H ) :   1.0255

FINAL SINGLE POINT ENERGY       -76.027053512321

DIPOLE MOMENT
-------------
                                X             Y             Z
Electronic contribution:     -0.09177       0.12955      -0.00773
Nuclear contribution   :      0.55611      -0.78505       0.04685
                        -----------------------------------------
Total Dipole Moment    :      0.46434      -0.65551       0.03911
                        -----------------------------------------
Magnitude (a.u.)       :      0.80426
Magnitude (Debye)      :      2.04426

VIBRATIONAL FREQUENCIES
-----------------------

   0:         0.00 cm**-1
   1:         0.00 cm**-1
   2:         0.00 cm**-1
   3:         0.00 cm**-1
   4:         0.00 cm**-1
   5:         0.00 cm**-1
   6:      1775.62 cm**-1
   7:      4113.41 cm**-1
   8:      4211.65 cm**-1

IR SPECTRUM
-----------

 Mode    freq (cm**-1)   T**2         TX         TY         TZ
-------------------------------------------------------------------
   6:      1775.62   80.652083  ( -5.186419   7.318670  -0.436144)
   7:      4113.41   21.164148  (  2.655882  -3.749728   0.223562)
   8:      4211.65   60.460690  ( -6.348851  -4.481224   0.267227)

--------------------------
THERMOCHEMISTRY AT 298.15K
--------------------------

Temperature         ... 298.15 K
Pressure            ... 1.00 atm
Total Mass          ... 18.02 AMU

Throughout the following assumptions are being made:
  (1) The electronic state is orbitally nondegenerate
  (2) There are no thermally accessible electronically excited states
  (3) Hindered rotations indicated by low frequency modes are not
      treated as such but are treated as vibrations and this may
      cause some error
  (4) All equations used are the standard statistical mechanics
      equations for an ideal gas
  (5) All vibrations are strictly harmonic

freq.    1775.62  E(vib)   ...       0.00
freq.    4113.41  E(vib)   ...       0.00
freq.    4211.65  E(vib)   ...       0.00

------------
INNER ENERGY
------------

The inner energy is: U= E(el) + E(ZPE) + E(vib) + E(rot) + E(trans)
    E(el)   - is the total energy from the electronic structure calculation
              = E(kin-el) + E(nuc-el) + E(el-el) + E(nuc-nuc)
    E(ZPE)  - the the zero temperature vibrational energy from the frequency calculation
    E(vib)  - the the finite temperature correction to E(ZPE) due to population
              of excited vibrational states
    E(rot)  - is the rotational thermal energy
    E(trans)- is the translational thermal energy

Summary of contributions to the inner energy U:
Electronic energy                ...    -76.02705351 Eh
Zero point energy                ...      0.02301104 Eh      14.44 kcal/mol
Thermal vibrational correction   ...      0.00000154 Eh       0.00 kcal/mol
Thermal rotational correction    ...      0.00141627 Eh       0.89 kcal/mol
Thermal translational correction ...      0.00141627 Eh       0.89 kcal/mol
-----------------------------------------------------------------------
Total thermal energy                    -76.00120839 Eh

Summary of corrections to the electronic energy:
(perhaps to be used in another calculation)
Total thermal correction                  0.00283408 Eh       1.78 kcal/mol
Non-thermal (ZPE) correction              0.02301104 Eh      14.44 kcal/mol
-----------------------------------------------------------------------
Total correction                          0.02584512 Eh      16.22 kcal/mol

--------
ENTHALPY
--------

The enthalpy is H = U + kB*T
                kB is Boltzmann's constant
Total free energy                 ...    -76.00120839 Eh
Thermal Enthalpy correction       ...      0.00094421 Eh       0.59 kcal/mol
-----------------------------------------------------------------------
Total Enthalpy                    ...    -76.00026418 Eh

Vibrational entropy computed according to the QRRHO of S. Grimme
Chem.Eur.J. 2012 18 9955

-------
ENTROPY
-------

The entropy contributions are T*S = T*(S(el)+S(vib)+S(rot)+S(trans)
     S(el)   - electronic entropy
     S(vib)  - vibrational entropy
     S(rot)  - rotational entropy
     S(trans)- translational entropy
The entropies will be listed as mutliplied by the temperature to get
units of energy

Electronic entropy                ...      0.00000000 Eh      0.00 kcal/mol
Vibrational entropy               ...      0.00000172 Eh      0.00 kcal/mol
Rotational entropy                ...      0.00454770 Eh      2.85 kcal/mol
Translational entropy             ...      0.01644380 Eh     10.32 kcal/mol
-----------------------------------------------------------------------
Final entropy term                ...      0.02099322 Eh     13.17 kcal/mol

CAUTION: The rotational entropy is not quite correctly treated here
         because it includes a symmetry number that is not yet correctly
         implemented in ORCA!
For a nonlinear molecule the correct rotational entropy is:
    S(rot) = R*(ln(qrot/sn)+1.5)
    R    = 8.31441 J/mol/K = 1.987191683e-3 kcal/mol/K
    qrot =   82.6956957
    sn is the rotational symmetry number. We have assumed 3 here
       if it is different for your molecule then you should correct
       the printed rotational entropy by manually evaluating the equation
       as given above

For convenience we print out the resulting values for sn=1 - 12:
 sn= 1  qrot/sn=      82.6957 T*S(rot)=     3.50 kcal/mol T*S(tot)=    13.82 kcal/mol
 sn= 2  qrot/sn=      41.3478 T*S(rot)=     3.09 kcal/mol T*S(tot)=    13.41 kcal/mol
 sn= 3  qrot/sn=      27.5652 T*S(rot)=     2.85 kcal/mol T*S(tot)=    13.17 kcal/mol
 sn= 4  qrot/sn=      20.6739 T*S(rot)=     2.68 kcal/mol T*S(tot)=    13.00 kcal/mol
 sn= 5  qrot/sn=      16.5391 T*S(rot)=     2.55 kcal/mol T*S(tot)=    12.87 kcal/mol
 sn= 6  qrot/sn=      13.7826 T*S(rot)=     2.44 kcal/mol T*S(tot)=    12.76 kcal/mol
 sn= 7  qrot/sn=      11.8137 T*S(rot)=     2.35 kcal/mol T*S(tot)=    12.67 kcal/mol
 sn= 8  qrot/sn=      10.3370 T*S(rot)=     2.27 kcal/mol T*S(tot)=    12.59 kcal/mol
 sn= 9  qrot/sn=       9.1884 T*S(rot)=     2.20 kcal/mol T*S(tot)=    12.52 kcal/mol
 sn=10  qrot/sn=       8.2696 T*S(rot)=     2.14 kcal/mol T*S(tot)=    12.46 kcal/mol
 sn=11  qrot/sn=       7.5178 T*S(rot)=     2.08 kcal/mol T*S(tot)=    12.40 kcal/mol
 sn=12  qrot/sn=       6.8913 T*S(rot)=     2.03 kcal/mol T*S(tot)=    12.35 kcal/mol

-------------------
GIBBS FREE ENTHALPY
-------------------

The Gibbs free enthalpy is G = H - T*S

Total enthalpy                    ...    -76.00026418 Eh
Total entropy correction          ...     -0.02099322 Eh    -13.17 kcal/mol
-----------------------------------------------------------------------
Final Gibbs free enthalpy         ...    -76.02125740 Eh

For completeness - the Gibbs free enthalpy minus the electronic energy
G-E(el)                           ...      0.00579611 Eh      3.64 kcal/mol

                             ****ORCA TERMINATED NORMALLY****
TOTAL RUN TIME: 0 days 0 hours 0 minutes 16 seconds 309 msec
