 Gaussian 09, Revision E.01,
 Gaussian 09:  ES64L-G09RevE.01 30-Nov-2015

 ------------------------------------------
 # RHF/STO-3G scf=(conver=12, MaxCycle=100)
 ------------------------------------------

 ----------
 RHF Energy
 ----------
 Symbolic Z-matrix:
 Charge =  0 Multiplicity = 1

                         Standard orientation:
 ---------------------------------------------------------------------
 Center     Atomic      Atomic             Coordinates (Angstroms)
 Number     Number       Type             X           Y           Z
 ---------------------------------------------------------------------
      1          8           0       -0.000000    0.000000    0.255955
      2          1           0        0.000000    1.638037   -1.023820
      3          1           0       -0.000000   -1.638037   -1.023820
 ---------------------------------------------------------------------

 SCF Done:  E(RHF) =  -74.3627487162     A.U. after   14 cycles

 The electronic state is 1-A1.
 Alpha  occ. eigenvalues --  -20.31213  -1.12726  -0.41037  -0.28539  -0.26484
 Alpha virt. eigenvalues --    0.09833   0.11000

 Mulliken charges:
               1
     1  O   -0.010900
     2  H    0.005450
     3  H    0.005450
 Sum of Mulliken charges =   0.00000

 Dipole moment (field-independent basis, Debye):
    X=             -0.0000    Y=              0.0000    Z=             -0.5180  Tot=              0.5180
 Quadrupole moment (field-independent basis, Debye-Ang):
   XX=             -6.4387   YY=             -4.5293   ZZ=             -5.2402
   XY=              0.0000   XZ=              0.0000   YZ=              0.0000

 Normal termination of Gaussian 09 at Mon Nov 19 15:51:04 2018.
