                         Program Version 4.0.1.2 - RELEASE -
|  1> # Running OrCa
|  2>
|  3> % pal nprocs 2 end
|  4> % MaxCore 8000
|  5>
|  6> ! CCSD(T) cc-pvqz
|  7>
|  8> * xyz 0 1
|  9> O       -3.1403358162      4.5496815570     -0.0014963683
| 10> H       -2.1510094674      4.5069001746      0.0010564571
| 11> H       -3.4297011993      3.6043303389      0.0549140710
| 12> *
| 13>
| 14>
| 15>                          ****END OF INPUT****

CARTESIAN COORDINATES (ANGSTROEM)
---------------------------------
  O     -3.140336    4.549682   -0.001496
  H     -2.151009    4.506900    0.001056
  H     -3.429701    3.604330    0.054914

 Total Charge           Charge          ....    0
 Multiplicity           Mult            ....    1
 Number of Electrons    NEL             ....   10
 Basis Dimension        Dim             ....  115

ORBITAL ENERGIES
----------------

  NO   OCC          E(Eh)            E(eV)
   0   2.0000     -20.565432      -559.6139
   1   2.0000      -1.333051       -36.2742
   2   2.0000      -0.696635       -18.9564
   3   2.0000      -0.575643       -15.6640
   4   2.0000      -0.505486       -13.7550
   5   0.0000       0.114165         3.1066
   6   0.0000       0.168879         4.5954
   7   0.0000       0.439888        11.9700
   8   0.0000       0.464043        12.6272
   9   0.0000       0.488622        13.2961

E(0)                                       ...    -76.060489912
E(0)                                       ...    -76.060489912
E(CORR)                                    ...     -0.288091277
E(TOT)                                     ...    -76.348581189
E(CCSD(T))                                 ...    -76.357894871

MULLIKEN ATOMIC CHARGES
-----------------------
   0 O :   -0.501173
   1 H :    0.250587
   2 H :    0.250587
Sum of atomic charges:   -0.0000000

LOEWDIN ATOMIC CHARGES
----------------------
   0 O :    0.753657
   1 H :   -0.376829
   2 H :   -0.376829

  Mayer bond orders larger than 0.1
B(  0-O ,  1-H ) :   0.9628 B(  0-O ,  2-H ) :   0.9628

FINAL SINGLE POINT ENERGY       -76.357894870776

DIPOLE MOMENT
-------------
                                X             Y             Z
Electronic contribution:     -0.15094       0.21308      -0.01272
Nuclear contribution   :      0.58262      -0.82248       0.04908
                        -----------------------------------------
Total Dipole Moment    :      0.43168      -0.60940       0.03636
                        -----------------------------------------
Magnitude (a.u.)       :      0.74769
Magnitude (Debye)      :      1.90047

                             ****ORCA TERMINATED NORMALLY****
TOTAL RUN TIME: 0 days 0 hours 0 minutes 37 seconds 226 msec
